 Q-Chem 5.2 (devel), Q-Chem, Inc., Pleasanton, CA (2019)
 Q-Chem 5.2.1 for Intel X86 EM64T Linux

User input:
--------------------------------------------------------------
$rem
jobtype = freq
exchange = b3lyp
basis = 6-31g*
$end

$molecule
0 1
C     -6.28122074    0.46074381    0.04085374
C     -6.07136283    1.89923092   -0.34029964
H     -6.70427846    2.65093545    0.11367416
H     -7.05823979    0.22465853    0.75656264
H     -6.09887465   -0.30250308   -0.70475889
O     -5.15183247    1.20623122    0.51337584
H     -5.11994643    2.02144483    0.84299602
H     -5.74490681    2.12377400   -1.34764316
H     -4.71669082    1.42014844    0.99605666
$end
--------------------------------------------------------------

             Standard Nuclear Orientation (Angstroms)
    I     Atom           X                Y                Z
 ----------------------------------------------------------------
    1      C       0.9064507319     0.0708190567    -0.0338054983
    2      C      -0.4432760513     0.7305366781     0.0058641110
    3      H      -0.8461774257     1.1369289713    -0.9129666094
    4      H       1.4303870504     0.0241885883    -0.9798765457
    5      H       1.5431015352     0.1454587621     0.8384552279
    6      O      -0.2998884070    -0.6930438942     0.0919154317
    7      H      -1.0566354907    -0.6174294604    -0.3506404644
    8      H      -0.7334663119     1.2581921948     0.9053658416
    9      H      -0.7171501852    -1.2111223113    -0.0680125796
 ----------------------------------------------------------------

   19    -154.1957220304      2.72e-09  Convergence criterion met
 Total energy in the final basis set =     -154.1957220304

                    Orbital Energies (a.u.)
 --------------------------------------------------------------

 Alpha MOs
 -- Occupied --
-19.2236 -10.2860 -10.2353  -1.3511  -0.9378  -0.7147  -0.6203  -0.5852
 -0.5329  -0.4157  -0.4038  -0.3839  -0.0350

          Ground-State Mulliken Net Atomic Charges

     Atom                 Charge (a.u.)
  ----------------------------------------
      1 C                    -0.432870
      2 C                    -0.312480
      3 H                     0.239304
      4 H                     0.195895
      5 H                     0.179161
      6 O                     0.249171
      7 H                    -0.206107
      8 H                     0.211743
      9 H                    -0.123817
  ----------------------------------------
  Sum of atomic charges =     0.000000

                    Cartesian Multipole Moments
 -----------------------------------------------------------------
    Charge (ESU x 10^10)
                -0.0000
    Dipole Moment (Debye)
         X       1.3234      Y       1.5946      Z       0.2994
       Tot       2.0938
    Quadrupole Moments (Debye-Ang)
        XX     -24.0577     XY      -3.2110     YY     -21.8760
        XZ      -0.9417     YZ      -0.4273     ZZ     -20.0894

 Frequency:     -5024.82               -4522.02               -3838.67
 Force Cnst:     16.1348                16.4515                10.1790
 Red. Mass:       1.0846                 1.3655                 1.1724
 IR Intens:      396.499               5791.900                149.038
 Frequency:     -2787.08               -1292.14                -645.19
 Force Cnst:      5.2130                 4.2231                 0.3263
 Red. Mass:       1.1390                 4.2930                 1.3304
 IR Intens:      239.491               2086.107                 26.622
 Frequency:       454.68                 758.36                 792.51
 Force Cnst:      0.1584                 0.4502                 0.4587
 Red. Mass:       1.3007                 1.3286                 1.2395
 IR Intens:      153.804                 15.579                 12.846
 Frequency:       815.24                 901.31                1155.36
 Force Cnst:      0.4376                 0.7884                 1.0331
 Red. Mass:       1.1174                 1.6473                 1.3136
 IR Intens:        5.460                 39.630                  2.451
 Frequency:      1366.68                1437.25                1516.84
 Force Cnst:      1.8112                 1.3606                 2.0074
 Red. Mass:       1.6458                 1.1179                 1.4809
 IR Intens:       26.556                 31.905                  8.118
 Frequency:      3123.81                3197.50                3286.93
 Force Cnst:      6.0363                 6.3179                 7.1101
 Red. Mass:       1.0499                 1.0488                 1.1170
 IR Intens:       27.442                 34.028                 23.730
 Frequency:      3307.65                4744.38                9468.79
 Force Cnst:      7.2066                14.0961                56.4836
 Red. Mass:       1.1180                 1.0629                 1.0693
 IR Intens:        6.220                477.864                 89.812

 STANDARD THERMODYNAMIC QUANTITIES AT   298.15 K  AND     1.00 ATM

   This Molecule has  6 Imaginary Frequencies
   Zero point vibrational energy:       51.932 kcal/mol

   Atom    1 Element C  Has Mass   12.00000
   Atom    2 Element C  Has Mass   12.00000
   Atom    3 Element H  Has Mass    1.00783
   Atom    4 Element H  Has Mass    1.00783
   Atom    5 Element H  Has Mass    1.00783
   Atom    6 Element O  Has Mass   15.99491
   Atom    7 Element H  Has Mass    1.00783
   Atom    8 Element H  Has Mass    1.00783
   Atom    9 Element H  Has Mass    1.00783
   Molecular Mass:    46.041890 amu
   Principal axes and moments of inertia in amu*Bohr^2:
                             1           2           3
    Eigenvalues --       80.39970    87.94576   142.72008
          X               0.99803    -0.05791     0.02394
          Y               0.05715     0.99787     0.03145
          Z              -0.02571    -0.03002     0.99922
   Rotational Symmetry Number is   1
   The Molecule is an Asymmetric Top
   Translational Enthalpy:        0.889 kcal/mol
   Rotational Enthalpy:           0.889 kcal/mol
   Vibrational Enthalpy:         52.308 kcal/mol
   gas constant (RT):             0.592 kcal/mol
   Translational Entropy:        37.406  cal/mol.K
   Rotational Entropy:           21.539  cal/mol.K
   Vibrational Entropy:           1.670  cal/mol.K

   Total Enthalpy:               54.678 kcal/mol
   Total Entropy:                60.615  cal/mol.K

 Total job time:  14.80s(wall), 33.31s(cpu)
        *  Thank you very much for using Q-Chem.  Have a nice day.  *
