 Q-Chem 5.2 (devel), Q-Chem, Inc., Pleasanton, CA (2019)
 Q-Chem 5.2.1 for Intel X86 EM64T Linux

User input:
--------------------------------------------------------------
$rem
jobtype = freq
exchange = b3lyp
basis = 6-31g*
$end

$molecule
0 1
C      0.43665038   -0.16436664    0.26279937
C     -0.61972395    0.23328335   -0.37298577
H      1.42116912    0.05287031   -0.12865606
H      0.61081209    1.62112697   -2.73088025
H      4.34834701   -3.45660400   -0.06105383
O     -1.57742396    0.59378666   -0.94937855
H      0.03969147    1.86949640   -3.13054744
H      3.62364356   -3.54317550    0.06105383
H      0.33932841   -0.71557369    1.18822101
$end
--------------------------------------------------------------

             Standard Nuclear Orientation (Angstroms)
    I     Atom           X                Y                Z
 ----------------------------------------------------------------
    1      C       0.7513093490     0.4177762175    -0.4543234151
    2      C      -0.4580790476     0.2939945584    -0.0067379027
    3      H       1.2786330733    -0.4431698900    -0.8421479700
    4      H      -0.9380205764    -2.6361162212    -0.4358092096
    5      H       5.5982395674    -0.8727981541     0.5881560832
    6      O      -1.5544974695     0.1817797641     0.3990392117
    7      H      -1.6259435842    -2.7585271585    -0.1921342274
    8      H       5.1239956576    -0.3969340277     0.8983915468
    9      H       1.2396938091     1.3826826839    -0.4424020098
 ----------------------------------------------------------------

   12    -154.9482360797      2.06e-09  Convergence criterion met
 Total energy in the final basis set =     -154.9482360797

                    Orbital Energies (a.u.)
 --------------------------------------------------------------

 Alpha MOs
 -- Occupied --
-19.2125 -10.3101 -10.1936  -1.1078  -0.7797  -0.5377  -0.4853  -0.4847
 -0.4422  -0.4377  -0.4360  -0.3988  -0.2423

          Ground-State Mulliken Net Atomic Charges

     Atom                 Charge (a.u.)
  ----------------------------------------
      1 C                    -0.501490
      2 C                     0.482578
      3 H                     0.200642
      4 H                    -0.018087
      5 H                     0.000150
      6 O                    -0.382651
      7 H                     0.018944
      8 H                    -0.000164
      9 H                     0.200078
  ----------------------------------------
  Sum of atomic charges =     0.000000

                    Cartesian Multipole Moments
 -----------------------------------------------------------------
    Charge (ESU x 10^10)
                -0.0000
    Dipole Moment (Debye)
         X       1.4138      Y       0.1263      Z      -0.5281
       Tot       1.5145
    Quadrupole Moments (Debye-Ang)
        XX     -22.1444     XY       0.4463     YY     -18.7218
        XZ      -0.3332     YZ       0.5586     ZZ     -21.9339

 Frequency:      -278.40                -272.70                -263.60
 Force Cnst:      0.0461                 0.0442                 0.0413
 Red. Mass:       1.0093                 1.0088                 1.0097
 IR Intens:        0.007                  0.015                  0.202
 Frequency:      -248.16                -151.27                 -75.10
 Force Cnst:      0.0366                 0.0137                 0.0058
 Red. Mass:       1.0083                 1.0143                 1.7580
 IR Intens:        0.618                  0.009                  0.614
 Frequency:       -70.32                 -50.80                 -26.36
 Force Cnst:      0.0048                 0.0016                 0.0004
 Red. Mass:       1.6455                 1.0526                 1.0489
 IR Intens:        0.830                  0.005                  0.002
 Frequency:       224.81                 428.84                 537.05
 Force Cnst:      0.0319                 0.2525                 1.5387
 Red. Mass:       1.0725                 2.3300                 9.0549
 IR Intens:        0.112                  3.238                 58.784
 Frequency:       595.13                 986.51                1207.16
 Force Cnst:      0.2620                 1.0816                 1.9353
 Red. Mass:       1.2557                 1.8863                 2.2541
 IR Intens:       90.399                 10.063                 15.131
 Frequency:      1446.70                2269.58                3222.20
 Force Cnst:      1.9893                34.6951                 6.4826
 Red. Mass:       1.6132                11.4322                 1.0597
 IR Intens:       11.903                515.869                 26.768
 Frequency:      3304.34                4492.39                4493.48
 Force Cnst:      7.1817                11.9838                11.9896
 Red. Mass:       1.1164                 1.0078                 1.0078
 IR Intens:        5.633                  1.917                  0.003

 STANDARD THERMODYNAMIC QUANTITIES AT   298.15 K  AND     1.00 ATM

   This Molecule has  9 Imaginary Frequencies
   Zero point vibrational energy:       33.178 kcal/mol

   Atom    1 Element C  Has Mass   12.00000
   Atom    2 Element C  Has Mass   12.00000
   Atom    3 Element H  Has Mass    1.00783
   Atom    4 Element H  Has Mass    1.00783
   Atom    5 Element H  Has Mass    1.00783
   Atom    6 Element O  Has Mass   15.99491
   Atom    7 Element H  Has Mass    1.00783
   Atom    8 Element H  Has Mass    1.00783
   Atom    9 Element H  Has Mass    1.00783
   Molecular Mass:    46.041890 amu
   Principal axes and moments of inertia in amu*Bohr^2:
                             1           2           3
    Eigenvalues --       98.39861   419.95850   469.47269
          X               0.99782    -0.00479     0.06582
          Y               0.00190     0.99903     0.04391
          Z              -0.06597    -0.04369     0.99686
   Rotational Symmetry Number is   1
   The Molecule is an Asymmetric Top
   Translational Enthalpy:        0.889 kcal/mol
   Rotational Enthalpy:           0.889 kcal/mol
   Vibrational Enthalpy:         33.948 kcal/mol
   gas constant (RT):             0.592 kcal/mol
   Translational Entropy:        37.406  cal/mol.K
   Rotational Entropy:           24.476  cal/mol.K
   Vibrational Entropy:           3.966  cal/mol.K

   Total Enthalpy:               36.318 kcal/mol
   Total Entropy:                65.848  cal/mol.K

 Total job time:  10.32s(wall), 24.25s(cpu)
        *  Thank you very much for using Q-Chem.  Have a nice day.  *
