 Q-Chem 5.2 (devel), Q-Chem, Inc., Pleasanton, CA (2019)
 Q-Chem 5.2.1 for Intel X86 EM64T Linux

User input:
--------------------------------------------------------------
$rem
jobtype = freq
exchange = b3lyp
basis = 6-31g*
$end

$molecule
0 1
C     -6.49413326    0.83935851    0.03209537
C     -5.72699927    1.92369104   -0.10952584
H     -6.18200180    1.29224446    0.19371974
H     -6.89758954    0.56158414    1.00078369
H     -6.73375375    0.20815236   -0.81787722
O     -5.23691162    1.16742188    0.01998179
H     -5.48737524    2.55490100    0.74044295
H     -5.32354596    2.20146036   -1.07821682
H     -4.86504255    0.95585037    0.88941372
$end
--------------------------------------------------------------

             Standard Nuclear Orientation (Angstroms)
    I     Atom           X                Y                Z
 ----------------------------------------------------------------
    1      C       0.8230683231     0.1218509678    -0.0521197882
    2      C      -0.4783094505     0.3935871626    -0.1821332198
    3      H       0.2976612031     0.1004850107    -0.2804726363
    4      H       1.3606704978    -0.4237741055    -0.8212555454
    5      H       1.3763918833     0.4396851528     0.8260072273
    6      O      -0.3298106695    -0.3728825509     0.2862399900
    7      H      -1.0316383895     0.0757555577    -1.0602578064
    8      H      -1.0159061920     0.9392127380     0.5870059472
    9      H      -0.4172468819    -1.2409327296    -0.1354290578
 ----------------------------------------------------------------

   14    -152.9758558733      7.91e-09  Convergence criterion met
 Total energy in the final basis set =     -152.9758558733

                    Orbital Energies (a.u.)
 --------------------------------------------------------------

 Alpha MOs
 -- Occupied --
-19.2971 -10.3372 -10.3141  -1.6523  -1.0269  -0.8553  -0.7783  -0.6476
 -0.5592  -0.4728  -0.4153  -0.3122  -0.0721

          Ground-State Mulliken Net Atomic Charges

     Atom                 Charge (a.u.)
  ----------------------------------------
      1 C                     0.513601
      2 C                     0.305499
      3 H                    -0.932617
      4 H                    -0.088445
      5 H                     0.111822
      6 O                     0.181672
      7 H                    -0.126739
      8 H                     0.040418
      9 H                    -0.005211
  ----------------------------------------
  Sum of atomic charges =     0.000000

                    Cartesian Multipole Moments
 -----------------------------------------------------------------
    Charge (ESU x 10^10)
                -0.0000
    Dipole Moment (Debye)
         X       0.5453      Y       0.6641      Z       1.5054
       Tot       1.7334
    Quadrupole Moments (Debye-Ang)
        XX     -21.3540     XY       0.6568     YY     -22.9017
        XZ       0.4040     YZ      -1.1249     ZZ     -22.7632

 Frequency:     -7480.80               -6589.42               -2204.03
 Force Cnst:     35.5232                29.0630                 5.8687
 Red. Mass:       1.0774                 1.1360                 2.0505
 IR Intens:     2507.332                557.316               6276.331
 Frequency:     -1173.32                -631.82                -499.99
 Force Cnst:      0.9528                 0.2567                 0.1806
 Red. Mass:       1.1746                 1.0913                 1.2262
 IR Intens:      892.708                128.943                103.024
 Frequency:        95.94                 750.84                 956.77
 Force Cnst:      0.0066                 0.4581                 0.6944
 Red. Mass:       1.2212                 1.3790                 1.2875
 IR Intens:      373.476                207.952                274.653
 Frequency:      1030.75                1143.71                1350.29
 Force Cnst:      0.9046                 1.0117                 1.2578
 Red. Mass:       1.4450                 1.3128                 1.1708
 IR Intens:      139.693                 89.903                 85.171
 Frequency:      1467.52                1635.59                2732.90
 Force Cnst:      1.3566                 3.1170                 4.8609
 Red. Mass:       1.0692                 1.9776                 1.1046
 IR Intens:       62.344                364.930               1187.878
 Frequency:      2879.58                2945.05                3107.51
 Force Cnst:      5.3530                 5.3530                 5.9276
 Red. Mass:       1.0957                 1.0475                 1.0418
 IR Intens:     1619.702                623.776                271.328
 Frequency:      3190.11                4735.71               14110.84
 Force Cnst:      6.7105               150.6322               126.4296
 Red. Mass:       1.1192                11.3998                 1.0777
 IR Intens:     1354.539                245.052               1990.704

 STANDARD THERMODYNAMIC QUANTITIES AT   298.15 K  AND     1.00 ATM

   This Molecule has  6 Imaginary Frequencies
   Zero point vibrational energy:       60.232 kcal/mol

   Atom    1 Element C  Has Mass   12.00000
   Atom    2 Element C  Has Mass   12.00000
   Atom    3 Element H  Has Mass    1.00783
   Atom    4 Element H  Has Mass    1.00783
   Atom    5 Element H  Has Mass    1.00783
   Atom    6 Element O  Has Mass   15.99491
   Atom    7 Element H  Has Mass    1.00783
   Atom    8 Element H  Has Mass    1.00783
   Atom    9 Element H  Has Mass    1.00783
   Molecular Mass:    46.041890 amu
   Principal axes and moments of inertia in amu*Bohr^2:
                             1           2           3
    Eigenvalues --       41.87478    81.73446    94.39552
          X               0.99837    -0.05427     0.01738
          Y               0.04287     0.91621     0.39840
          Z              -0.03754    -0.39700     0.91705
   Rotational Symmetry Number is   1
   The Molecule is an Asymmetric Top
   Translational Enthalpy:        0.889 kcal/mol
   Rotational Enthalpy:           0.889 kcal/mol
   Vibrational Enthalpy:         60.829 kcal/mol
   gas constant (RT):             0.592 kcal/mol
   Translational Entropy:        37.406  cal/mol.K
   Rotational Entropy:           20.407  cal/mol.K
   Vibrational Entropy:           4.075  cal/mol.K

   Total Enthalpy:               63.199 kcal/mol
   Total Entropy:                61.888  cal/mol.K

 Total job time:  13.19s(wall), 31.17s(cpu)
        *  Thank you very much for using Q-Chem.  Have a nice day.  *
