 Q-Chem 5.2 (devel), Q-Chem, Inc., Pleasanton, CA (2019)
 Q-Chem 5.2.1 for Intel X86 EM64T Linux

User input:
--------------------------------------------------------------
$rem
jobtype = freq
exchange = b3lyp
basis = 6-31g*
$end

$molecule
0 1
C      0.29353715   -0.18458620    1.12454371
C     -0.36435290    0.14752541   -1.11079083
H      1.29620592   -0.26700016    0.69462191
H     -0.04868078    1.19018850   -1.01233343
H      0.43522797   -0.44780570   -1.56191060
O     -0.71715550   -0.40498437    0.14979532
H     -1.23989110    0.10334381   -1.76528391
H      0.15994461    0.80397983    1.57374907
H      0.18516463   -0.94066114    1.90760877
$end
--------------------------------------------------------------

             Standard Nuclear Orientation (Angstroms)
    I     Atom           X                Y                Z
 ----------------------------------------------------------------
    1      C       1.1767034016     0.2001984291     0.0000616254
    2      C      -1.1769823149     0.2006756462     0.0011864981
    3      H       1.0601759566     1.0961897670    -0.6168584295
    4      H      -1.1418329662     0.9581541647     0.7895264524
    5      H      -1.2982907923     0.6782091725    -0.9758005693
    6      O      -0.0005977642    -0.5961502986    -0.0002190872
    7      H      -2.0371058042    -0.4523402672     0.1762240515
    8      H       1.4270387966     0.4836308115     1.0266547738
    9      H       1.9964704034    -0.3998857113    -0.4054823222
 ----------------------------------------------------------------

   11    -155.0225633723      6.56e-09  Convergence criterion met
 Total energy in the final basis set =     -155.0225633723

                    Orbital Energies (a.u.)
 --------------------------------------------------------------

 Alpha MOs
 -- Occupied --
-19.1399 -10.2227 -10.2224  -1.0191  -0.7159  -0.6372  -0.4679  -0.4657
 -0.4644  -0.3996  -0.3746  -0.3122  -0.2472

          Ground-State Mulliken Net Atomic Charges

     Atom                 Charge (a.u.)
  ----------------------------------------
      1 C                    -0.194035
      2 C                    -0.194973
      3 H                     0.129621
      4 H                     0.130301
      5 H                     0.134201
      6 O                    -0.455937
      7 H                     0.157394
      8 H                     0.137045
      9 H                     0.156384
  ----------------------------------------
  Sum of atomic charges =     0.000000

                    Cartesian Multipole Moments
 -----------------------------------------------------------------
    Charge (ESU x 10^10)
                -0.0000
    Dipole Moment (Debye)
         X      -0.0039      Y       1.3774      Z      -0.0198
       Tot       1.3776
    Quadrupole Moments (Debye-Ang)
        XX     -16.9705     XY       0.0476     YY     -20.9680
        XZ      -0.1537     YZ       0.0003     ZZ     -19.8819

 Frequency:      -118.34                 179.61                 422.69
 Force Cnst:      0.0089                 0.0240                 0.2336
 Red. Mass:       1.0732                 1.2632                 2.2190
 IR Intens:        0.751                  4.769                  3.152
 Frequency:       929.72                1110.69                1159.83
 Force Cnst:      2.1340                 1.6304                 1.1779
 Red. Mass:       4.1903                 2.2432                 1.4862
 IR Intens:       30.965                 73.538                 35.336
 Frequency:      1170.45                1216.54                1265.41
 Force Cnst:      1.0065                 1.5346                 1.5076
 Red. Mass:       1.2470                 1.7599                 1.5980
 IR Intens:        4.532                 39.851                  4.791
 Frequency:      1471.46                1505.89                1509.50
 Force Cnst:      1.4266                 1.4105                 1.5239
 Red. Mass:       1.1183                 1.0557                 1.1352
 IR Intens:       12.039                  6.272                  0.742
 Frequency:      1519.79                1524.89                1529.20
 Force Cnst:      1.4272                 1.4576                 1.4516
 Red. Mass:       1.0487                 1.0639                 1.0536
 IR Intens:        0.927                  3.071                  5.842
 Frequency:      3041.30                3055.69                3114.04
 Force Cnst:      5.6023                 5.6689                 6.3165
 Red. Mass:       1.0280                 1.0305                 1.1055
 IR Intens:       74.611                 33.436                124.969
 Frequency:      3118.34                3134.70                3138.26
 Force Cnst:      6.3447                 6.3935                 6.4117
 Red. Mass:       1.1074                 1.1043                 1.1049
 IR Intens:        8.917                 26.708                 48.474

 STANDARD THERMODYNAMIC QUANTITIES AT   298.15 K  AND     1.00 ATM

   This Molecule has  1 Imaginary Frequencies
   Zero point vibrational energy:       50.204 kcal/mol

   Atom    1 Element C  Has Mass   12.00000
   Atom    2 Element C  Has Mass   12.00000
   Atom    3 Element H  Has Mass    1.00783
   Atom    4 Element H  Has Mass    1.00783
   Atom    5 Element H  Has Mass    1.00783
   Atom    6 Element O  Has Mass   15.99491
   Atom    7 Element H  Has Mass    1.00783
   Atom    8 Element H  Has Mass    1.00783
   Atom    9 Element H  Has Mass    1.00783
   Molecular Mass:    46.041890 amu
   Principal axes and moments of inertia in amu*Bohr^2:
                             1           2           3
    Eigenvalues --       46.29230   181.64931   204.86783
          X               1.00000     0.00003     0.00018
          Y              -0.00003     1.00000    -0.00043
          Z              -0.00018     0.00043     1.00000
   Rotational Symmetry Number is   1
   The Molecule is an Asymmetric Top
   Translational Enthalpy:        0.889 kcal/mol
   Rotational Enthalpy:           0.889 kcal/mol
   Vibrational Enthalpy:         50.862 kcal/mol
   gas constant (RT):             0.592 kcal/mol
   Translational Entropy:        37.406  cal/mol.K
   Rotational Entropy:           22.070  cal/mol.K
   Vibrational Entropy:           3.633  cal/mol.K

   Total Enthalpy:               53.232 kcal/mol
   Total Entropy:                63.109  cal/mol.K

 Total job time:  12.21s(wall), 32.38s(cpu)
        *  Thank you very much for using Q-Chem.  Have a nice day.  *
