 Q-Chem 5.2 (devel), Q-Chem, Inc., Pleasanton, CA (2019)
 Q-Chem 5.2.1 for Intel X86 EM64T Linux

User input:
--------------------------------------------------------------
$rem
jobtype = freq
exchange = b3lyp
basis = 6-31g*
$end

$molecule
0 1
C     -6.74232213    0.90831215   -0.04452688
C     -5.40137974    1.53728603   -0.26583403
H     -7.49860813    1.69363751    0.02422766
H     -6.73593423    0.32759792    0.88115702
H     -6.97140665    0.24959708   -0.88538475
O     -4.45455553    1.39828849    0.50137776
H     -5.11994643    2.02144483    0.84299602
H     -5.30650933    2.14835166   -1.17925209
H     -4.71669082    1.42014844    0.99605666
$end
--------------------------------------------------------------

             Standard Nuclear Orientation (Angstroms)
    I     Atom           X                Y                Z
 ----------------------------------------------------------------
    1      C       1.2330994383    -0.1598953358     0.0168250582
    2      C      -0.1310647745     0.4579015674     0.0071051496
    3      H       1.7386811867     0.0750722552    -0.9226476388
    4      H       1.1528626117    -1.2443148709     0.1252539672
    5      H       1.8043119902     0.2479230373     0.8539795323
    6      O      -1.1674111518    -0.1900933367     0.1095703721
    7      H      -0.7714991869    -0.2620133667    -0.7769132063
    8      H      -0.1564143546     1.5554917318    -0.0996065228
    9      H      -1.0408610154    -0.6394494827    -0.2002103549
 ----------------------------------------------------------------

   12    -154.1365649569      8.43e-09  Convergence criterion met
 Total energy in the final basis set =     -154.1365649569

                    Orbital Energies (a.u.)
 --------------------------------------------------------------

 Alpha MOs
 -- Occupied --
-19.2045 -10.1864 -10.1689  -1.4189  -0.7985  -0.7049  -0.5995  -0.5237
 -0.4871  -0.3930  -0.3858  -0.3335  -0.1309

          Ground-State Mulliken Net Atomic Charges

     Atom                 Charge (a.u.)
  ----------------------------------------
      1 C                    -0.434499
      2 C                    -0.330846
      3 H                     0.161029
      4 H                     0.117955
      5 H                     0.128235
      6 O                    -0.104561
      7 H                     0.211563
      8 H                     0.123642
      9 H                     0.127481
  ----------------------------------------
  Sum of atomic charges =     0.000000

                    Cartesian Multipole Moments
 -----------------------------------------------------------------
    Charge (ESU x 10^10)
                 0.0000
    Dipole Moment (Debye)
         X      -0.5930      Y      -1.1908      Z      -0.6235
       Tot       1.4692
    Quadrupole Moments (Debye-Ang)
        XX     -20.8189     XY       1.1390     YY     -18.5598
        XZ       0.7640     YZ       0.9299     ZZ     -20.8852

 Frequency:     -7538.73               -6573.14               -2469.46
 Force Cnst:     35.7913                28.2652                 3.8805
 Red. Mass:       1.0689                 1.1103                 1.0800
 IR Intens:       62.733                833.353                454.575
 Frequency:     -1014.32                -225.65                 338.79
 Force Cnst:      0.7294                 0.0548                 0.1450
 Red. Mass:       1.2033                 1.8261                 2.1448
 IR Intens:      148.629                 15.011                  6.256
 Frequency:       489.56                 999.40                1075.86
 Force Cnst:      0.1520                 1.4573                 1.2340
 Red. Mass:       1.0766                 2.4765                 1.8094
 IR Intens:       79.874                  1.588                  2.288
 Frequency:      1084.47                1396.18                1468.83
 Force Cnst:      0.8388                 1.3661                 1.4490
 Red. Mass:       1.2105                 1.1894                 1.1399
 IR Intens:        1.928                 13.156                  2.270
 Frequency:      1473.00                1536.53                2015.17
 Force Cnst:      1.3454                 1.4558                14.1367
 Red. Mass:       1.0524                 1.0466                 5.9085
 IR Intens:        5.168                  8.087                 15.498
 Frequency:      3031.58                3033.56                3098.86
 Force Cnst:      5.6001                 5.8961                 6.2196
 Red. Mass:       1.0342                 1.0875                 1.0993
 IR Intens:      134.299                 13.983                 41.416
 Frequency:      3138.93                4296.67               15142.72
 Force Cnst:      6.4075                11.6004               144.3623
 Red. Mass:       1.1038                 1.0665                 1.0686
 IR Intens:       36.436               1201.553                363.553

 STANDARD THERMODYNAMIC QUANTITIES AT   298.15 K  AND     1.00 ATM

   This Molecule has  5 Imaginary Frequencies
   Zero point vibrational energy:       62.358 kcal/mol

   Atom    1 Element C  Has Mass   12.00000
   Atom    2 Element C  Has Mass   12.00000
   Atom    3 Element H  Has Mass    1.00783
   Atom    4 Element H  Has Mass    1.00783
   Atom    5 Element H  Has Mass    1.00783
   Atom    6 Element O  Has Mass   15.99491
   Atom    7 Element H  Has Mass    1.00783
   Atom    8 Element H  Has Mass    1.00783
   Atom    9 Element H  Has Mass    1.00783
   Molecular Mass:    46.041890 amu
   Principal axes and moments of inertia in amu*Bohr^2:
                             1           2           3
    Eigenvalues --       37.03935   185.38976   205.13416
          X               0.99982    -0.00649     0.01763
          Y               0.00597     0.99955     0.02955
          Z              -0.01781    -0.02944     0.99941
   Rotational Symmetry Number is   1
   The Molecule is an Asymmetric Top
   Translational Enthalpy:        0.889 kcal/mol
   Rotational Enthalpy:           0.889 kcal/mol
   Vibrational Enthalpy:         62.810 kcal/mol
   gas constant (RT):             0.592 kcal/mol
   Translational Entropy:        37.406  cal/mol.K
   Rotational Entropy:           21.870  cal/mol.K
   Vibrational Entropy:           2.188  cal/mol.K

   Total Enthalpy:               65.180 kcal/mol
   Total Entropy:                61.464  cal/mol.K

 Total job time:  12.67s(wall), 29.35s(cpu)
        *  Thank you very much for using Q-Chem.  Have a nice day.  *
