 Q-Chem 5.2 (devel), Q-Chem, Inc., Pleasanton, CA (2019)
 Q-Chem 5.2.1 for Intel X86 EM64T Linux

User input:
--------------------------------------------------------------
$rem
jobtype = freq
exchange = b3lyp
basis = 6-31g*
$end

$molecule
0 1
C      0.00000002   -0.00000000    0.00000000
C     -3.51964012   -0.48414022   -0.35223652
H      1.04503251    0.17131088   -0.26731836
H     -3.80354670    0.45263350   -0.85779949
H     -3.68827244   -1.40611563   -0.93125840
O     -3.04810793   -0.49955968    0.77787064
H     -0.61871504    0.05095897   -0.89860691
H     -0.32442023    0.76461809    0.70923211
H     -0.10189726   -0.98688794    0.45669316
$end
--------------------------------------------------------------

             Standard Nuclear Orientation (Angstroms)
    I     Atom           X                Y                Z
 ----------------------------------------------------------------
    1      C       2.0607489491     0.0835958829    -0.0051805398
    2      C      -1.4909156466     0.4469084856    -0.0017766516
    3      H       3.1203016250     0.3485895808    -0.0102693045
    4      H      -1.6339286158     1.0324200020     0.9204301690
    5      H      -1.7905506427     0.9501016602    -0.9349204517
    6      O      -1.0296895318    -0.6874914258     0.0096194470
    7      H       1.4584710526     0.9924463792     0.0592526167
    8      H       1.8493173025    -0.5550288586     0.8552580730
    9      H       1.8149057174    -0.4516235681    -0.9249635299
 ----------------------------------------------------------------

   12    -155.0178883492      1.47e-09  Convergence criterion met
 Total energy in the final basis set =     -155.0178883492

                    Orbital Energies (a.u.)
 --------------------------------------------------------------

 Alpha MOs
 -- Occupied --
-19.1702 -10.2897 -10.1601  -1.0509  -0.6844  -0.6424  -0.4950  -0.4474
 -0.4005  -0.3834  -0.3820  -0.3758  -0.2694

          Ground-State Mulliken Net Atomic Charges

     Atom                 Charge (a.u.)
  ----------------------------------------
      1 C                    -0.620773
      2 C                     0.079685
      3 H                     0.146907
      4 H                     0.127982
      5 H                     0.128064
      6 O                    -0.329945
      7 H                     0.138951
      8 H                     0.165544
      9 H                     0.163584
  ----------------------------------------
  Sum of atomic charges =     0.000000

                    Cartesian Multipole Moments
 -----------------------------------------------------------------
    Charge (ESU x 10^10)
                 0.0000
    Dipole Moment (Debye)
         X      -0.9382      Y       1.9941      Z      -0.0200
       Tot       2.2039
    Quadrupole Moments (Debye-Ang)
        XX     -17.7475     XY      -2.7058     YY     -20.3144
        XZ       0.0256     YZ       0.0029     ZZ     -19.6916

 Frequency:      -237.04                 -56.10                  -7.92
 Force Cnst:      0.0339                 0.0020                 0.0000
 Red. Mass:       1.0234                 1.0533                 1.1863
 IR Intens:        0.120                  0.002                  1.620
 Frequency:        97.00                 143.54                 178.21
 Force Cnst:      0.0105                 0.0160                 0.0739
 Red. Mass:       1.8964                 1.3141                 3.9479
 IR Intens:        0.714                  0.413                 18.459
 Frequency:      1177.92                1255.51                1365.57
 Force Cnst:      1.1348                 1.2405                 1.2962
 Red. Mass:       1.3882                 1.3357                 1.1798
 IR Intens:        1.998                 10.378                 19.266
 Frequency:      1368.43                1377.92                1539.26
 Force Cnst:      1.3006                 1.3195                 1.6947
 Red. Mass:       1.1788                 1.1796                 1.2140
 IR Intens:       14.815                 17.569                 12.981
 Frequency:      1590.28                1590.58                1750.04
 Force Cnst:      1.5017                 1.5024                 8.3952
 Red. Mass:       1.0078                 1.0079                 4.6525
 IR Intens:        0.121                  0.127                 83.570
 Frequency:      2996.55                3059.81                3062.11
 Force Cnst:      5.5194                 6.1952                 5.5680
 Red. Mass:       1.0433                 1.1231                 1.0079
 IR Intens:       45.126                130.862                  0.822
 Frequency:      3169.26                3173.65                3177.85
 Force Cnst:      6.5187                 6.5387                 6.5582
 Red. Mass:       1.1015                 1.1018                 1.1022
 IR Intens:       42.373                 23.850                 20.089

 STANDARD THERMODYNAMIC QUANTITIES AT   298.15 K  AND     1.00 ATM

   This Molecule has  3 Imaginary Frequencies
   Zero point vibrational energy:       45.851 kcal/mol

   Atom    1 Element C  Has Mass   12.00000
   Atom    2 Element C  Has Mass   12.00000
   Atom    3 Element H  Has Mass    1.00783
   Atom    4 Element H  Has Mass    1.00783
   Atom    5 Element H  Has Mass    1.00783
   Atom    6 Element O  Has Mass   15.99491
   Atom    7 Element H  Has Mass    1.00783
   Atom    8 Element H  Has Mass    1.00783
   Atom    9 Element H  Has Mass    1.00783
   Molecular Mass:    46.041890 amu
   Principal axes and moments of inertia in amu*Bohr^2:
                             1           2           3
    Eigenvalues --       60.08087   436.16240   472.39413
          X               0.99973    -0.02315     0.00095
          Y               0.02314     0.99972     0.00546
          Z              -0.00107    -0.00544     0.99998
   Rotational Symmetry Number is   1
   The Molecule is an Asymmetric Top
   Translational Enthalpy:        0.889 kcal/mol
   Rotational Enthalpy:           0.889 kcal/mol
   Vibrational Enthalpy:         47.144 kcal/mol
   gas constant (RT):             0.592 kcal/mol
   Translational Entropy:        37.406  cal/mol.K
   Rotational Entropy:           24.030  cal/mol.K
   Vibrational Entropy:           8.786  cal/mol.K

   Total Enthalpy:               49.514 kcal/mol
   Total Entropy:                70.222  cal/mol.K

 Total job time:  11.25s(wall), 27.85s(cpu)
        *  Thank you very much for using Q-Chem.  Have a nice day.  *
