 Q-Chem 5.2 (devel), Q-Chem, Inc., Pleasanton, CA (2019)
 Q-Chem 5.2.1 for Intel X86 EM64T Linux

User input:
--------------------------------------------------------------
$rem
jobtype = freq
exchange = b3lyp
basis = 6-31g*
$end

$molecule
0 1
C      0.03507388   -0.39261090    0.53917380
C     -0.03507435    0.39261092   -0.53917374
H      0.98710652   -0.77880134    0.88957858
H     -0.98710634    0.77880204   -0.88957956
H      0.85815414    0.66465944   -1.09273059
O     -0.74898280    2.39880873    1.62415795
H     -0.09000339    2.89456536    1.11530383
H     -0.23576919    1.99247722    2.33862803
H     -0.85815384   -0.66466019    1.09273153
$end
--------------------------------------------------------------

             Standard Nuclear Orientation (Angstroms)
    I     Atom           X                Y                Z
 ----------------------------------------------------------------
    1      C       1.1815015193    -0.6548149557    -0.0142313833
    2      C       1.1128919107     0.6790626187    -0.0340009511
    3      H       1.5258307431    -1.1847093427     0.8683455469
    4      H       0.7685628501     1.2089582308    -0.9165772187
    5      H       1.3997068128     1.2673366177     0.8320034559
    6      O      -1.8444289600    -0.0040829483    -0.0794358548
    7      H      -1.8171443427     0.6760991521     0.6101791641
    8      H      -1.7825719063    -0.8374169165     0.4111650045
    9      H       0.8946869434    -1.2430901330    -0.8802351080
 ----------------------------------------------------------------

   11    -154.9943859452      3.18e-09  Convergence criterion met
 Total energy in the final basis set =     -154.9943859452

                    Orbital Energies (a.u.)
 --------------------------------------------------------------

 Alpha MOs
 -- Occupied --
-19.1310 -10.1787 -10.1778  -0.9909  -0.7493  -0.5728  -0.5113  -0.4625
 -0.4083  -0.3662  -0.3513  -0.2954  -0.2485

          Ground-State Mulliken Net Atomic Charges

     Atom                 Charge (a.u.)
  ----------------------------------------
      1 C                    -0.288238
      2 C                    -0.275279
      3 H                     0.132719
      4 H                     0.151668
      5 H                     0.132384
      6 O                    -0.765808
      7 H                     0.382732
      8 H                     0.382992
      9 H                     0.146830
  ----------------------------------------
  Sum of atomic charges =     0.000000

                    Cartesian Multipole Moments
 -----------------------------------------------------------------
    Charge (ESU x 10^10)
                -0.0000
    Dipole Moment (Debye)
         X       0.1078      Y      -0.2158      Z       1.9099
       Tot       1.9250
    Quadrupole Moments (Debye-Ang)
        XX     -22.6776     XY       0.3400     YY     -16.5334
        XZ      -2.8834     YZ       0.2008     ZZ     -18.2515

 Frequency:      -188.59                -131.13                 -62.59
 Force Cnst:      0.0232                 0.0110                 0.0025
 Red. Mass:       1.1055                 1.0830                 1.0667
 IR Intens:       33.792                287.579                 36.226
 Frequency:        54.59                 158.06                 183.33
 Force Cnst:      0.0032                 0.0175                 0.1097
 Red. Mass:       1.7955                 1.1913                 5.5417
 IR Intens:       24.643                 41.904                 18.876
 Frequency:       837.16                 927.20                 952.81
 Force Cnst:      0.4302                 0.7769                 0.6253
 Red. Mass:       1.0419                 1.5339                 1.1689
 IR Intens:        0.936                  2.047                 81.551
 Frequency:      1057.75                1252.30                1386.83
 Force Cnst:      0.6646                 1.3992                 1.4097
 Red. Mass:       1.0082                 1.5143                 1.2440
 IR Intens:        0.036                  0.008                  0.081
 Frequency:      1481.02                1700.13                1714.70
 Force Cnst:      1.4391                 5.1569                 1.8766
 Red. Mass:       1.1136                 3.0281                 1.0833
 IR Intens:        4.776                  0.230                 63.225
 Frequency:      3165.22                3179.93                3246.90
 Force Cnst:      6.1783                 6.3745                 6.9300
 Red. Mass:       1.0467                 1.0699                 1.1157
 IR Intens:       17.290                  1.208                  0.168
 Frequency:      3271.93                3727.31                3850.35
 Force Cnst:      7.0596                 8.5566                 9.4452
 Red. Mass:       1.1192                 1.0453                 1.0813
 IR Intens:       29.917                  2.297                 20.748

 STANDARD THERMODYNAMIC QUANTITIES AT   298.15 K  AND     1.00 ATM

   This Molecule has  3 Imaginary Frequencies
   Zero point vibrational energy:       45.957 kcal/mol

   Atom    1 Element C  Has Mass   12.00000
   Atom    2 Element C  Has Mass   12.00000
   Atom    3 Element H  Has Mass    1.00783
   Atom    4 Element H  Has Mass    1.00783
   Atom    5 Element H  Has Mass    1.00783
   Atom    6 Element O  Has Mass   15.99491
   Atom    7 Element H  Has Mass    1.00783
   Atom    8 Element H  Has Mass    1.00783
   Atom    9 Element H  Has Mass    1.00783
   Molecular Mass:    46.041890 amu
   Principal axes and moments of inertia in amu*Bohr^2:
                             1           2           3
    Eigenvalues --       77.25147   364.20986   414.87662
          X               0.99996     0.00061    -0.00864
          Y              -0.00056     0.99999     0.00541
          Z               0.00865    -0.00541     0.99995
   Rotational Symmetry Number is   1
   The Molecule is an Asymmetric Top
   Translational Enthalpy:        0.889 kcal/mol
   Rotational Enthalpy:           0.889 kcal/mol
   Vibrational Enthalpy:         47.378 kcal/mol
   gas constant (RT):             0.592 kcal/mol
   Translational Entropy:        37.406  cal/mol.K
   Rotational Entropy:           23.971  cal/mol.K
   Vibrational Entropy:          10.077  cal/mol.K

   Total Enthalpy:               49.747 kcal/mol
   Total Entropy:                71.454  cal/mol.K

 Total job time:  19.16s(wall), 29.39s(cpu)
        *  Thank you very much for using Q-Chem.  Have a nice day.  *
