 Q-Chem 5.2 (devel), Q-Chem, Inc., Pleasanton, CA (2019)
 Q-Chem 5.2.1 for Intel X86 EM64T Linux

User input:
--------------------------------------------------------------
$rem
jobtype = freq
exchange = b3lyp
basis = 6-31g*
$end

$molecule
0 1
C     -6.72018696    0.97153445   -0.00139873
C     -5.48012863    1.83857463   -0.06847590
H     -7.61797014    1.55795445   -0.21582388
H     -6.82326184    0.51908815    0.99037288
H     -6.65442657    0.14906600   -0.72122634
O     -4.32567871    1.05574208    0.19846236
H     -5.52962098    2.65169744    0.66204381
H     -5.37258578    2.27629782   -1.06516822
H     -4.42349337    0.68470910    1.09203139
$end
--------------------------------------------------------------

             Standard Nuclear Orientation (Angstroms)
    I     Atom           X                Y                Z
 ----------------------------------------------------------------
    1      C       1.1891552668    -0.2426235307     0.0200085166
    2      C      -0.0824430675     0.5775141518    -0.0464334897
    3      H       2.0706069761     0.3951275616    -0.0904343560
    4      H       1.2021745580    -1.0016499680    -0.7690747345
    5      H       1.2547509240    -0.7747773247     0.9747022464
    6      O      -1.2132208214    -0.2666672920     0.1133689352
    7      H      -0.1648747155     1.0970196330    -1.0059105984
    8      H      -0.0984760592     1.3242769692     0.7527228617
    9      H      -1.1986883080    -0.9160022614    -0.6104070625
 ----------------------------------------------------------------

   12    -155.0331507966      2.23e-09  Convergence criterion met
 Total energy in the final basis set =     -155.0331507966

                    Orbital Energies (a.u.)
 --------------------------------------------------------------

 Alpha MOs
 -- Occupied --
-19.1353 -10.2266 -10.1760  -1.0097  -0.7444  -0.6207  -0.4974  -0.4520
 -0.4270  -0.3808  -0.3681  -0.3184  -0.2605

          Ground-State Mulliken Net Atomic Charges

     Atom                 Charge (a.u.)
  ----------------------------------------
      1 C                    -0.454872
      2 C                    -0.024050
      3 H                     0.140629
      4 H                     0.133758
      5 H                     0.160522
      6 O                    -0.612167
      7 H                     0.122020
      8 H                     0.149755
      9 H                     0.384405
  ----------------------------------------
  Sum of atomic charges =     0.000000

                    Cartesian Multipole Moments
 -----------------------------------------------------------------
    Charge (ESU x 10^10)
                -0.0000
    Dipole Moment (Debye)
         X       1.1534      Y      -0.2055      Z      -1.1841
       Tot       1.6657
    Quadrupole Moments (Debye-Ang)
        XX     -22.1230     XY       0.9445     YY     -18.2494
        XZ       1.8205     YZ       1.4855     ZZ     -18.9702

 Frequency:       253.93                 340.00                 437.33
 Force Cnst:      0.0417                 0.0743                 0.3028
 Red. Mass:       1.0973                 1.0911                 2.6874
 IR Intens:        1.424                130.282                  9.732
 Frequency:       810.71                 920.29                1079.24
 Force Cnst:      0.4176                 1.0973                 0.9586
 Red. Mass:       1.0784                 2.1991                 1.3969
 IR Intens:        2.746                 10.574                 83.722
 Frequency:      1092.63                1164.55                1295.81
 Force Cnst:      2.1428                 1.4905                 1.2394
 Red. Mass:       3.0464                 1.8654                 1.2528
 IR Intens:       26.970                  8.641                  7.132
 Frequency:      1391.37                1423.00                1447.19
 Force Cnst:      1.4107                 1.4391                 1.6485
 Red. Mass:       1.2368                 1.2062                 1.3360
 IR Intens:        2.415                 39.489                 27.426
 Frequency:      1514.99                1525.77                1546.52
 Force Cnst:      1.4146                 1.4446                 1.5351
 Red. Mass:       1.0461                 1.0533                 1.0894
 IR Intens:        6.015                  2.526                  0.495
 Frequency:      3060.76                3062.65                3111.49
 Force Cnst:      5.7557                 5.8349                 6.2743
 Red. Mass:       1.0428                 1.0558                 1.1000
 IR Intens:       48.265                 34.350                  1.485
 Frequency:      3136.50                3142.03                3702.37
 Force Cnst:      6.4071                 6.4103                 8.6106
 Red. Mass:       1.1054                 1.1021                 1.0662
 IR Intens:       72.305                 40.841                  8.235

 STANDARD THERMODYNAMIC QUANTITIES AT   298.15 K  AND     1.00 ATM

   This Molecule has  0 Imaginary Frequencies
   Zero point vibrational energy:       50.691 kcal/mol

   Atom    1 Element C  Has Mass   12.00000
   Atom    2 Element C  Has Mass   12.00000
   Atom    3 Element H  Has Mass    1.00783
   Atom    4 Element H  Has Mass    1.00783
   Atom    5 Element H  Has Mass    1.00783
   Atom    6 Element O  Has Mass   15.99491
   Atom    7 Element H  Has Mass    1.00783
   Atom    8 Element H  Has Mass    1.00783
   Atom    9 Element H  Has Mass    1.00783
   Molecular Mass:    46.041890 amu
   Principal axes and moments of inertia in amu*Bohr^2:
                             1           2           3
    Eigenvalues --       54.18115   189.20073   216.86195
          X               0.99970    -0.01597     0.01859
          Y               0.01495     0.99844     0.05372
          Z              -0.01942    -0.05342     0.99838
   Rotational Symmetry Number is   1
   The Molecule is an Asymmetric Top
   Translational Enthalpy:        0.889 kcal/mol
   Rotational Enthalpy:           0.889 kcal/mol
   Vibrational Enthalpy:         51.551 kcal/mol
   gas constant (RT):             0.592 kcal/mol
   Translational Entropy:        37.406  cal/mol.K
   Rotational Entropy:           22.324  cal/mol.K
   Vibrational Entropy:           4.367  cal/mol.K

   Total Enthalpy:               53.921 kcal/mol
   Total Entropy:                64.096  cal/mol.K

 Total job time:  25.26s(wall), 30.37s(cpu)
        *  Thank you very much for using Q-Chem.  Have a nice day.  *
