 Q-Chem 5.2 (devel), Q-Chem, Inc., Pleasanton, CA (2019)
 Q-Chem 5.2.1 for Intel X86 EM64T Linux

User input:
--------------------------------------------------------------
$rem
jobtype = freq
exchange = b3lyp
basis = 6-31g*
$end

$molecule
0 1
C     -6.62263846    0.46221271   -0.33817347
C     -5.80536473    1.50582662   -0.48256655
H     -5.95307702    2.11252249    1.32570498
H     -7.10497761    0.22864052    0.60382771
H     -6.82712555   -0.19105383   -1.18078822
O     -5.48782084    2.38142251    0.51477172
H     -5.11994643    2.02144483    0.84299602
H     -5.30971154    1.76349983   -1.41101148
H     -4.71669082    1.42014844    0.99605666
$end
--------------------------------------------------------------

             Standard Nuclear Orientation (Angstroms)
    I     Atom           X                Y                Z
 ----------------------------------------------------------------
    1      C       1.2667000951    -0.2264866608    -0.0125103622
    2      C       0.1407387797     0.4877445500    -0.0117369922
    3      H      -1.0306609724    -1.0067829509    -0.2440189228
    4      H       1.2702343771    -1.3044493923    -0.1245688516
    5      H       2.2263499583     0.2680702967     0.1017582464
    6      O      -1.1094458069    -0.0418570726    -0.1486549607
    7      H      -1.1637793561    -0.2995052071     0.4020827327
    8      H       0.1065883907     1.5651542213     0.0982616769
    9      H      -0.9777991906    -0.4551777219     1.1012089311
 ----------------------------------------------------------------

   14    -154.2546228083      2.07e-09  Convergence criterion met
 Total energy in the final basis set =     -154.2546228083

                    Orbital Energies (a.u.)
 --------------------------------------------------------------

 Alpha MOs
 -- Occupied --
-19.2637 -10.2856 -10.2177  -1.3678  -0.8370  -0.7306  -0.6732  -0.5656
 -0.5497  -0.4510  -0.4245  -0.3049  -0.1295

          Ground-State Mulliken Net Atomic Charges

     Atom                 Charge (a.u.)
  ----------------------------------------
      1 C                    -0.288772
      2 C                     0.037812
      3 H                     0.160905
      4 H                     0.173911
      5 H                     0.170925
      6 O                    -0.007199
      7 H                     0.141702
      8 H                     0.195281
      9 H                    -0.584566
  ----------------------------------------
  Sum of atomic charges =     0.000000

                    Cartesian Multipole Moments
 -----------------------------------------------------------------
    Charge (ESU x 10^10)
                -0.0000
    Dipole Moment (Debye)
         X       1.8205      Y       1.0370      Z      -2.9950
       Tot       3.6550
    Quadrupole Moments (Debye-Ang)
        XX     -19.9516     XY      -0.8545     YY     -18.7000
        XZ       3.3237     YZ       2.7261     ZZ     -26.3810

 Frequency:     -5817.27               -5518.84               -2294.26
 Force Cnst:     21.2721                19.4518                 3.5655
 Red. Mass:       1.0669                 1.0840                 1.1497
 IR Intens:       28.921                242.123                618.868
 Frequency:     -2066.24               -1056.59                -535.88
 Force Cnst:      2.7655                 0.7290                 0.1853
 Red. Mass:       1.0994                 1.1083                 1.0951
 IR Intens:      489.413                272.849                 46.738
 Frequency:       317.53                 625.65                 910.08
 Force Cnst:      0.1100                 0.4169                 0.6411
 Red. Mass:       1.8508                 1.8075                 1.3137
 IR Intens:       61.388                 31.853                 24.476
 Frequency:       984.51                1001.06                1267.37
 Force Cnst:      0.8105                 0.7135                 2.7300
 Red. Mass:       1.4193                 1.2084                 2.8848
 IR Intens:       17.128                 30.323                 51.690
 Frequency:      1365.22                1464.07                1732.85
 Force Cnst:      1.2459                 1.5503                 9.0682
 Red. Mass:       1.1345                 1.2276                 5.1257
 IR Intens:        6.891                 12.443                 55.835
 Frequency:      3184.61                3244.70                3275.86
 Force Cnst:      6.3361                 6.8112                 7.0572
 Red. Mass:       1.0604                 1.0981                 1.1162
 IR Intens:        0.389                  1.473                  8.352
 Frequency:      3551.71                4308.23               12624.78
 Force Cnst:      7.8115                11.6675                99.5874
 Red. Mass:       1.0510                 1.0669                 1.0605
 IR Intens:      364.803                122.218                218.426

 STANDARD THERMODYNAMIC QUANTITIES AT   298.15 K  AND     1.00 ATM

   This Molecule has  6 Imaginary Frequencies
   Zero point vibrational energy:       56.980 kcal/mol

   Atom    1 Element C  Has Mass   12.00000
   Atom    2 Element C  Has Mass   12.00000
   Atom    3 Element H  Has Mass    1.00783
   Atom    4 Element H  Has Mass    1.00783
   Atom    5 Element H  Has Mass    1.00783
   Atom    6 Element O  Has Mass   15.99491
   Atom    7 Element H  Has Mass    1.00783
   Atom    8 Element H  Has Mass    1.00783
   Atom    9 Element H  Has Mass    1.00783
   Molecular Mass:    46.041890 amu
   Principal axes and moments of inertia in amu*Bohr^2:
                             1           2           3
    Eigenvalues --       38.53811   182.22310   208.12834
          X               0.99943     0.02249    -0.02536
          Y              -0.02281     0.99966    -0.01246
          Z               0.02507     0.01303     0.99960
   Rotational Symmetry Number is   1
   The Molecule is an Asymmetric Top
   Translational Enthalpy:        0.889 kcal/mol
   Rotational Enthalpy:           0.889 kcal/mol
   Vibrational Enthalpy:         57.421 kcal/mol
   gas constant (RT):             0.592 kcal/mol
   Translational Entropy:        37.406  cal/mol.K
   Rotational Entropy:           21.907  cal/mol.K
   Vibrational Entropy:           2.127  cal/mol.K

   Total Enthalpy:               59.790 kcal/mol
   Total Entropy:                61.440  cal/mol.K

 Total job time:  13.61s(wall), 30.35s(cpu)
        *  Thank you very much for using Q-Chem.  Have a nice day.  *
