 Q-Chem 5.2 (devel), Q-Chem, Inc., Pleasanton, CA (2019)
 Q-Chem 5.2.1 for Intel X86 EM64T Linux

User input:
--------------------------------------------------------------
$rem
jobtype = freq
exchange = b3lyp
basis = 6-31g*
$end

$molecule
0 1
C      0.31166294   -0.13153812    0.55592863
C     -0.40147066    0.17616707   -0.72447180
H      1.37887060   -0.24564237    0.35221308
H     -0.07332906    1.09185031   -1.24461141
H      0.81004839   -1.18852135   -3.11645037
O     -1.29613393   -0.52501255   -1.18539459
H      0.23391991   -1.30825984   -3.56515815
H      0.15706458    0.69108912    1.25792268
H     -0.07666448   -1.05691347    0.98841341
$end
--------------------------------------------------------------

             Standard Nuclear Orientation (Angstroms)
    I     Atom           X                Y                Z
 ----------------------------------------------------------------
    1      C      -1.2956276618     0.2576584774     0.1646944141
    2      C       0.0397278496    -0.0919903334    -0.4160281048
    3      H      -1.4137696076     1.3436974510     0.1609764569
    4      H       0.2127936743     0.2471040271    -1.4512870842
    5      H       2.1781553386     1.9253941090     0.2235047382
    6      O       0.9008522898    -0.7152427985     0.1959736173
    7      H       2.7985865817     1.5236152600     0.2587017890
    8      H      -2.0803388869    -0.1998064857    -0.4422371932
    9      H      -1.3668465449    -0.1120708373     1.1905544986
 ----------------------------------------------------------------

   12    -155.0037634070      3.55e-09  Convergence criterion met
 Total energy in the final basis set =     -155.0037634070

                    Orbital Energies (a.u.)
 --------------------------------------------------------------

 Alpha MOs
 -- Occupied --
-19.1486 -10.2804 -10.1967  -1.0361  -0.7566  -0.5840  -0.4749  -0.4509
 -0.4308  -0.4270  -0.3954  -0.3582  -0.2543

          Ground-State Mulliken Net Atomic Charges

     Atom                 Charge (a.u.)
  ----------------------------------------
      1 C                    -0.514097
      2 C                     0.258668
      3 H                     0.173168
      4 H                     0.109922
      5 H                    -0.022126
      6 O                    -0.384254
      7 H                     0.021143
      8 H                     0.174151
      9 H                     0.183424
  ----------------------------------------
  Sum of atomic charges =     0.000000

                    Cartesian Multipole Moments
 -----------------------------------------------------------------
    Charge (ESU x 10^10)
                 0.0000
    Dipole Moment (Debye)
         X      -2.0938      Y       1.2774      Z      -0.9482
       Tot       2.6296
    Quadrupole Moments (Debye-Ang)
        XX     -20.5989     XY       1.1829     YY     -20.6401
        XZ      -0.3534     YZ       0.4161     ZZ     -19.5892

 Frequency:      -327.02                -206.66                -108.99
 Force Cnst:      0.0636                 0.0255                 0.0073
 Red. Mass:       1.0095                 1.0115                 1.0369
 IR Intens:        0.359                  1.098                  1.253
 Frequency:       -78.35                 135.08                 245.86
 Force Cnst:      0.0047                 0.0177                 0.0381
 Red. Mass:       1.2952                 1.6494                 1.0706
 IR Intens:        0.059                  3.820                  0.317
 Frequency:       515.60                 760.46                 908.13
 Force Cnst:      0.3878                 0.3858                 0.9811
 Red. Mass:       2.4761                 1.1324                 2.0190
 IR Intens:       12.623                  0.522                  4.162
 Frequency:      1139.36                1145.39                1391.85
 Force Cnst:      1.3649                 1.7078                 1.4051
 Red. Mass:       1.7845                 2.2094                 1.2310
 IR Intens:        1.177                 24.322                 16.245
 Frequency:      1422.26                1474.05                1505.46
 Force Cnst:      1.5106                 1.3645                 1.3990
 Red. Mass:       1.2675                 1.0658                 1.0476
 IR Intens:       16.555                 19.037                  9.418
 Frequency:      1756.66                3006.15                3077.28
 Force Cnst:     14.1495                 5.7745                 5.7672
 Red. Mass:       7.7825                 1.0845                 1.0337
 IR Intens:      140.088                117.819                  1.506
 Frequency:      3159.85                3167.39                4492.34
 Force Cnst:      6.4809                 6.5280                11.9835
 Red. Mass:       1.1017                 1.1044                 1.0078
 IR Intens:        7.842                 11.576                  1.766

 STANDARD THERMODYNAMIC QUANTITIES AT   298.15 K  AND     1.00 ATM

   This Molecule has  4 Imaginary Frequencies
   Zero point vibrational energy:       41.891 kcal/mol

   Atom    1 Element C  Has Mass   12.00000
   Atom    2 Element C  Has Mass   12.00000
   Atom    3 Element H  Has Mass    1.00783
   Atom    4 Element H  Has Mass    1.00783
   Atom    5 Element H  Has Mass    1.00783
   Atom    6 Element O  Has Mass   15.99491
   Atom    7 Element H  Has Mass    1.00783
   Atom    8 Element H  Has Mass    1.00783
   Atom    9 Element H  Has Mass    1.00783
   Molecular Mass:    46.041890 amu
   Principal axes and moments of inertia in amu*Bohr^2:
                             1           2           3
    Eigenvalues --       79.29122   222.48928   252.75364
          X               0.98343     0.18099     0.01013
          Y              -0.18125     0.98084     0.07143
          Z               0.00299    -0.07208     0.99739
   Rotational Symmetry Number is   1
   The Molecule is an Asymmetric Top
   Translational Enthalpy:        0.889 kcal/mol
   Rotational Enthalpy:           0.889 kcal/mol
   Vibrational Enthalpy:         42.886 kcal/mol
   gas constant (RT):             0.592 kcal/mol
   Translational Entropy:        37.406  cal/mol.K
   Rotational Entropy:           23.015  cal/mol.K
   Vibrational Entropy:           5.798  cal/mol.K

   Total Enthalpy:               45.256 kcal/mol
   Total Entropy:                66.219  cal/mol.K

 Total job time:  12.10s(wall), 28.87s(cpu)
        *  Thank you very much for using Q-Chem.  Have a nice day.  *
