 Q-Chem 5.2 (devel), Q-Chem, Inc., Pleasanton, CA (2019)
 Q-Chem 5.2.1 for Intel X86 EM64T Linux

User input:
--------------------------------------------------------------
$rem
jobtype = freq
exchange = b3lyp
basis = 6-31g*
$end

$molecule
0 1
C     -6.66637790    0.43904904   -0.25719374
C     -5.94835373    1.49956258   -0.06218724
H     -5.71542294    1.98359630    0.31478371
H     -7.24457062    0.01691667    0.55348697
H     -6.69122145   -0.02949242   -1.23164652
O     -5.29740349    2.46101266    0.11461172
H     -5.11994643    2.02144483    0.84299602
H     -5.54736563    1.89242602   -0.40009021
H     -4.71669082    1.42014844    0.99605666
$end
--------------------------------------------------------------

             Standard Nuclear Orientation (Angstroms)
    I     Atom           X                Y                Z
 ----------------------------------------------------------------
    1      C       1.3295613503    -0.0102416844    -0.0039941341
    2      C       0.0371545181     0.0730562969    -0.0359509627
    3      H      -0.5560696814    -0.1456592641    -0.2117378921
    4      H       1.8336592817    -0.8353543707    -0.4885352605
    5      H       1.9108938011     0.7449092798     0.5073825617
    6      O      -1.1345276040     0.1485660499    -0.0649272541
    7      H      -1.0409384858    -0.7014260999     0.0900211119
    8      H      -0.4368391466     0.4695719476     0.1818032577
    9      H      -0.8347801476    -1.0974575671     0.6801548355
 ----------------------------------------------------------------

   13    -152.9010947280      2.58e-09  Convergence criterion met
 Total energy in the final basis set =     -152.9010947280

                    Orbital Energies (a.u.)
 --------------------------------------------------------------

 Alpha MOs
 -- Occupied --
-19.3346 -10.3024 -10.2115  -1.8235  -0.9642  -0.7786  -0.7538  -0.6941
 -0.5046  -0.4476  -0.2900  -0.2529  -0.2167

          Ground-State Mulliken Net Atomic Charges

     Atom                 Charge (a.u.)
  ----------------------------------------
      1 C                    -0.415646
      2 C                    -0.093037
      3 H                     0.050887
      4 H                     0.143881
      5 H                     0.143175
      6 O                     0.227601
      7 H                     0.087580
      8 H                     0.165403
      9 H                    -0.309843
  ----------------------------------------
  Sum of atomic charges =     0.000000

                    Cartesian Multipole Moments
 -----------------------------------------------------------------
    Charge (ESU x 10^10)
                -0.0000
    Dipole Moment (Debye)
         X       0.0414      Y       1.9882      Z      -1.0311
       Tot       2.2400
    Quadrupole Moments (Debye-Ang)
        XX     -18.5348     XY      -1.8199     YY     -22.5989
        XZ       1.1007     YZ       2.5115     ZZ     -20.7794

 Frequency:     -7087.47               -6234.68               -2909.80
 Force Cnst:     30.4956                24.5218                 7.2546
 Red. Mass:       1.0304                 1.0707                 1.4542
 IR Intens:       26.999                 17.115                105.720
 Frequency:     -2339.95               -2147.03               -1941.67
 Force Cnst:      6.7653                 3.1483                 5.1637
 Red. Mass:       2.0971                 1.1592                 2.3247
 IR Intens:       84.528                120.842                 56.080
 Frequency:     -1436.20                -709.73                -270.53
 Force Cnst:      1.9473                 0.3078                 0.0611
 Red. Mass:       1.6023                 1.0370                 1.4171
 IR Intens:       20.766                 45.525                378.097
 Frequency:       908.44                1101.29                1401.72
 Force Cnst:      0.6145                 0.8674                 1.7527
 Red. Mass:       1.2638                 1.2139                 1.5140
 IR Intens:       23.957                  7.951                 44.121
 Frequency:      1589.22                2428.60                3177.91
 Force Cnst:      2.9055                 5.4332                 6.2395
 Red. Mass:       1.9526                 1.5635                 1.0486
 IR Intens:       15.324                188.578                 29.982
 Frequency:      3278.11                4084.58                5106.01
 Force Cnst:      7.0917                10.3346                15.8289
 Red. Mass:       1.1201                 1.0514                 1.0305
 IR Intens:       37.368                 99.436                932.310
 Frequency:      6358.56               10219.73               11839.65
 Force Cnst:     31.9803                67.0883                87.4860
 Red. Mass:       1.3425                 1.0902                 1.0593
 IR Intens:      307.304                287.517                826.700

 STANDARD THERMODYNAMIC QUANTITIES AT   298.15 K  AND     1.00 ATM

   This Molecule has  9 Imaginary Frequencies
   Zero point vibrational energy:       73.614 kcal/mol

   Atom    1 Element C  Has Mass   12.00000
   Atom    2 Element C  Has Mass   12.00000
   Atom    3 Element H  Has Mass    1.00783
   Atom    4 Element H  Has Mass    1.00783
   Atom    5 Element H  Has Mass    1.00783
   Atom    6 Element O  Has Mass   15.99491
   Atom    7 Element H  Has Mass    1.00783
   Atom    8 Element H  Has Mass    1.00783
   Atom    9 Element H  Has Mass    1.00783
   Molecular Mass:    46.041890 amu
   Principal axes and moments of inertia in amu*Bohr^2:
                             1           2           3
    Eigenvalues --       16.64221   186.87495   195.53965
          X               0.99953     0.02904    -0.01001
          Y              -0.02882     0.99936     0.02141
          Z               0.01063    -0.02111     0.99972
   Rotational Symmetry Number is   1
   The Molecule is an Asymmetric Top
   Translational Enthalpy:        0.889 kcal/mol
   Rotational Enthalpy:           0.889 kcal/mol
   Vibrational Enthalpy:         73.669 kcal/mol
   gas constant (RT):             0.592 kcal/mol
   Translational Entropy:        37.406  cal/mol.K
   Rotational Entropy:           21.036  cal/mol.K
   Vibrational Entropy:           0.223  cal/mol.K

   Total Enthalpy:               76.039 kcal/mol
   Total Entropy:                58.665  cal/mol.K

 Total job time:  12.49s(wall), 28.77s(cpu)
        *  Thank you very much for using Q-Chem.  Have a nice day.  *
