 Q-Chem 5.2 (devel), Q-Chem, Inc., Pleasanton, CA (2019)
 Q-Chem 5.2.1 for Intel X86 EM64T Linux

User input:
--------------------------------------------------------------
$rem
jobtype = freq
exchange = b3lyp
basis = 6-31g*
$end

$molecule
0 1
C      0.38416068   -0.33548681    0.55222312
C     -0.36498519    0.30995312   -0.57947914
H      1.43663329   -0.11090146    0.66883059
H      0.17306013    0.97775157   -1.23999933
H      5.32091990    0.04328575   -0.06105383
O     -0.54792377    0.72960417    0.77881835
H     -1.17226075   -0.24113165   -1.04460948
H      4.59621645   -0.04328575    0.06105383
H      0.09131561   -1.32978895    0.86421589
$end
--------------------------------------------------------------

             Standard Nuclear Orientation (Angstroms)
    I     Atom           X                Y                Z
 ----------------------------------------------------------------
    1      C       0.2057252754     0.4304887057     0.4387800306
    2      C      -0.6116370846    -0.7809029564     0.0880504248
    3      H       1.2254617912     0.4864673433     0.0799788226
    4      H      -0.1531710020    -1.5567732828    -0.5115899219
    5      H       5.0670243008    -0.3334013804    -0.3830548607
    6      O      -0.8423887507     0.4880589317    -0.5372774846
    7      H      -1.3501470361    -1.1285901580     0.7990013009
    8      H       4.3569233789    -0.1843351323    -0.2376728464
    9      H       0.0284894283     0.9146466611     1.3905746502
 ----------------------------------------------------------------

   11    -154.9600296263      6.07e-09  Convergence criterion met
 Total energy in the final basis set =     -154.9600296263

                    Orbital Energies (a.u.)
 --------------------------------------------------------------

 Alpha MOs
 -- Occupied --
-19.1621 -10.2398 -10.2395  -1.0661  -0.6747  -0.6354  -0.5082  -0.4774
 -0.4394  -0.4015  -0.3899  -0.3030  -0.2713

          Ground-State Mulliken Net Atomic Charges

     Atom                 Charge (a.u.)
  ----------------------------------------
      1 C                    -0.097473
      2 C                    -0.096498
      3 H                     0.153139
      4 H                     0.153599
      5 H                     0.005101
      6 O                    -0.420126
      7 H                     0.153613
      8 H                    -0.005089
      9 H                     0.153734
  ----------------------------------------
  Sum of atomic charges =     0.000000

                    Cartesian Multipole Moments
 -----------------------------------------------------------------
    Charge (ESU x 10^10)
                 0.0000
    Dipole Moment (Debye)
         X       1.0486      Y      -1.0856      Z       1.3013
       Tot       1.9928
    Quadrupole Moments (Debye-Ang)
        XX     -20.0958     XY       1.5468     YY     -19.6083
        XZ      -1.4884     YZ       1.2253     ZZ     -20.3932

 Frequency:      -284.10                -283.01                 -66.17
 Force Cnst:      0.0480                 0.0476                 0.0048
 Red. Mass:       1.0087                 1.0087                 1.8520
 IR Intens:        0.040                  0.063                  4.982
 Frequency:        31.19                  56.68                 780.83
 Force Cnst:      0.0006                 0.0031                 0.3679
 Red. Mass:       1.0511                 1.6147                 1.0243
 IR Intens:        0.019                  1.265                  0.170
 Frequency:       862.22                 864.79                1000.41
 Force Cnst:      1.6388                 4.1839                 0.5964
 Red. Mass:       3.7415                 9.4953                 1.0114
 IR Intens:       47.361                  8.623                  0.001
 Frequency:      1100.13                1105.60                1138.06
 Force Cnst:      0.9358                 0.9844                 0.9890
 Red. Mass:       1.3123                 1.3669                 1.2960
 IR Intens:        4.394                  0.151                  3.198
 Frequency:      1159.09                1246.68                1515.03
 Force Cnst:      1.1297                 3.2875                 1.4506
 Red. Mass:       1.4272                 3.5902                 1.0726
 IR Intens:        0.004                 17.988                  1.032
 Frequency:      1547.96                3175.81                3183.35
 Force Cnst:      1.7208                 6.2018                 6.2902
 Red. Mass:       1.2189                 1.0436                 1.0535
 IR Intens:        4.559                 36.356                 11.636
 Frequency:      3261.49                3275.39                4493.09
 Force Cnst:      7.0360                 7.0949                11.9875
 Red. Mass:       1.1226                 1.1225                 1.0078
 IR Intens:        0.198                 64.585                  0.066

 STANDARD THERMODYNAMIC QUANTITIES AT   298.15 K  AND     1.00 ATM

   This Molecule has  3 Imaginary Frequencies
   Zero point vibrational energy:       42.598 kcal/mol

   Atom    1 Element C  Has Mass   12.00000
   Atom    2 Element C  Has Mass   12.00000
   Atom    3 Element H  Has Mass    1.00783
   Atom    4 Element H  Has Mass    1.00783
   Atom    5 Element H  Has Mass    1.00783
   Atom    6 Element O  Has Mass   15.99491
   Atom    7 Element H  Has Mass    1.00783
   Atom    8 Element H  Has Mass    1.00783
   Atom    9 Element H  Has Mass    1.00783
   Molecular Mass:    46.041890 amu
   Principal axes and moments of inertia in amu*Bohr^2:
                             1           2           3
    Eigenvalues --      100.17476   259.91664   291.47441
          X               0.99771     0.00221    -0.06760
          Y               0.00829     0.98795     0.15454
          Z               0.06712    -0.15475     0.98567
   Rotational Symmetry Number is   1
   The Molecule is an Asymmetric Top
   Translational Enthalpy:        0.889 kcal/mol
   Rotational Enthalpy:           0.889 kcal/mol
   Vibrational Enthalpy:         43.887 kcal/mol
   gas constant (RT):             0.592 kcal/mol
   Translational Entropy:        37.406  cal/mol.K
   Rotational Entropy:           23.544  cal/mol.K
   Vibrational Entropy:          11.241  cal/mol.K

   Total Enthalpy:               46.257 kcal/mol
   Total Entropy:                72.191  cal/mol.K

 Total job time:  10.92s(wall), 29.14s(cpu)
        *  Thank you very much for using Q-Chem.  Have a nice day.  *
