 Q-Chem 5.2 (devel), Q-Chem, Inc., Pleasanton, CA (2019)
 Q-Chem 5.2.1 for Intel X86 EM64T Linux

User input:
--------------------------------------------------------------
$rem
jobtype = freq
exchange = b3lyp
basis = 6-31g*
$end

$molecule
0 1
C     -6.44640786    0.80536062    0.22516943
C     -5.18611105    1.92910960   -0.06621446
H     -7.00635066    1.70730380   -0.03146689
H     -6.91461745    0.31794858    1.08313722
H     -6.44673821    0.12189012   -0.62675042
O     -4.46293540    0.97139976    0.17777610
H     -5.60395653    2.56749621    0.72852423
H     -5.46231057    2.20985531   -1.09511558
H     -5.41792526    1.07430012    0.47575773
$end
--------------------------------------------------------------

             Standard Nuclear Orientation (Angstroms)
    I     Atom           X                Y                Z
 ----------------------------------------------------------------
    1      C       1.0592229220    -0.1454326438     0.0110280454
    2      C      -0.4837692346     0.5994104655    -0.0101459459
    3      H       1.3225907355     0.9143853959     0.0289934956
    4      H       1.7142476958    -0.6715682020    -0.6868425483
    5      H       1.1789870025    -0.5673403490     1.0113029665
    6      O      -0.8888555030    -0.5562594693    -0.0027521236
    7      H      -0.1955982023     1.1151689017    -0.9400344263
    8      H      -0.3831716742     1.1927703081     0.9126465938
    9      H       0.0210663424    -0.2572072302    -0.3093416900
 ----------------------------------------------------------------

   13    -154.6746334827      5.69e-09  Convergence criterion met
 Total energy in the final basis set =     -154.6746334827

                    Orbital Energies (a.u.)
 --------------------------------------------------------------

 Alpha MOs
 -- Occupied --
-19.0801 -10.3117 -10.1697  -1.1676  -0.7705  -0.6384  -0.5733  -0.5084
 -0.4344  -0.4103  -0.3959  -0.2662  -0.1944

          Ground-State Mulliken Net Atomic Charges

     Atom                 Charge (a.u.)
  ----------------------------------------
      1 C                    -0.663505
      2 C                    -0.070943
      3 H                     0.126753
      4 H                     0.202879
      5 H                     0.194393
      6 O                    -0.473993
      7 H                     0.138899
      8 H                     0.149959
      9 H                     0.395558
  ----------------------------------------
  Sum of atomic charges =     0.000000

                    Cartesian Multipole Moments
 -----------------------------------------------------------------
    Charge (ESU x 10^10)
                 0.0000
    Dipole Moment (Debye)
         X       1.6270      Y       1.7722      Z      -0.0812
       Tot       2.4071
    Quadrupole Moments (Debye-Ang)
        XX     -22.0983     XY      -2.8007     YY     -20.2663
        XZ      -0.5533     YZ       0.2427     ZZ     -19.1082

 Frequency:     -1593.10               -1434.19                -549.92
 Force Cnst:      2.7328                 1.3831                 0.2054
 Red. Mass:       1.8275                 1.1413                 1.1530
 IR Intens:       78.881                 11.970                  9.518
 Frequency:       441.38                 889.23                 966.69
 Force Cnst:      0.1515                 0.5263                 0.7802
 Red. Mass:       1.3196                 1.1297                 1.4171
 IR Intens:        1.732                  1.000                 83.642
 Frequency:      1169.28                1197.01                1271.18
 Force Cnst:      1.5554                 1.0349                 1.1127
 Red. Mass:       1.9308                 1.2259                 1.1687
 IR Intens:       26.035                 14.186                 12.661
 Frequency:      1315.15                1455.77                1504.49
 Force Cnst:      1.2356                 1.2864                 1.4358
 Red. Mass:       1.2125                 1.0303                 1.0766
 IR Intens:        7.441                  5.403                 48.577
 Frequency:      1545.80                1702.46                1956.38
 Force Cnst:      1.5439                 5.2658                 4.3492
 Red. Mass:       1.0967                 3.0836                 1.9287
 IR Intens:       30.032                 59.289                687.144
 Frequency:      2937.66                2995.39                3012.18
 Force Cnst:      5.2846                 5.7884                 5.6573
 Red. Mass:       1.0393                 1.0950                 1.0583
 IR Intens:      102.220                109.899                 62.118
 Frequency:      3137.39                3179.17                3837.34
 Force Cnst:      6.2798                 6.6147                 9.6484
 Red. Mass:       1.0828                 1.1108                 1.1121
 IR Intens:       23.019                  7.774                261.623

 STANDARD THERMODYNAMIC QUANTITIES AT   298.15 K  AND     1.00 ATM

   This Molecule has  3 Imaginary Frequencies
   Zero point vibrational energy:       49.340 kcal/mol

   Atom    1 Element C  Has Mass   12.00000
   Atom    2 Element C  Has Mass   12.00000
   Atom    3 Element H  Has Mass    1.00783
   Atom    4 Element H  Has Mass    1.00783
   Atom    5 Element H  Has Mass    1.00783
   Atom    6 Element O  Has Mass   15.99491
   Atom    7 Element H  Has Mass    1.00783
   Atom    8 Element H  Has Mass    1.00783
   Atom    9 Element H  Has Mass    1.00783
   Molecular Mass:    46.041890 amu
   Principal axes and moments of inertia in amu*Bohr^2:
                             1           2           3
    Eigenvalues --       61.06716   136.89280   174.13566
          X               0.99854    -0.05394    -0.00383
          Y               0.05395     0.99854     0.00368
          Z               0.00363    -0.00388     0.99999
   Rotational Symmetry Number is   1
   The Molecule is an Asymmetric Top
   Translational Enthalpy:        0.889 kcal/mol
   Rotational Enthalpy:           0.889 kcal/mol
   Vibrational Enthalpy:         49.620 kcal/mol
   gas constant (RT):             0.592 kcal/mol
   Translational Entropy:        37.406  cal/mol.K
   Rotational Entropy:           21.903  cal/mol.K
   Vibrational Entropy:           1.262  cal/mol.K

   Total Enthalpy:               51.990 kcal/mol
   Total Entropy:                60.571  cal/mol.K

 Total job time:  24.26s(wall), 30.99s(cpu)
        *  Thank you very much for using Q-Chem.  Have a nice day.  *
