 Q-Chem 5.2 (devel), Q-Chem, Inc., Pleasanton, CA (2019)
 Q-Chem 5.2.1 for Intel X86 EM64T Linux

User input:
--------------------------------------------------------------
$rem
jobtype = freq
exchange = b3lyp
basis = 6-31g*
$end

$molecule
0 1
C      0.52650229   -0.05964529    0.87728240
C     -0.00537779    0.07639086   -0.53338058
H      1.61151847    0.07484073    0.90020279
H      0.21688199    1.07021349   -0.93335332
H      0.43978033   -0.68039182   -1.18620051
O     -1.41333197   -0.10534417   -0.51636617
H     -1.72406883   -0.01280489   -1.43310803
H      0.06436837    0.68209147    1.53709909
H      0.28372715   -1.04535039    1.28782434
$end
--------------------------------------------------------------

             Standard Nuclear Orientation (Angstroms)
    I     Atom           X                Y                Z
 ----------------------------------------------------------------
    1      C       1.2291885062    -0.2098362202    -0.0000189610
    2      C      -0.0863591650     0.5389672387     0.0000178828
    3      H       2.0738660475     0.4847079912    -0.0003856142
    4      H      -0.1701848309     1.1678338458     0.8913994345
    5      H      -0.1702217805     1.1678317784    -0.8913608751
    6      O      -1.1523239706    -0.3987806577     0.0000334275
    7      H      -1.9805497697     0.1107078096    -0.0002490383
    8      H       1.3045236970    -0.8575382446     0.8797002796
    9      H       1.3041823542    -0.8580840297    -0.8793651372
 ----------------------------------------------------------------

   11    -155.0331381556      8.76e-09  Convergence criterion met
 Total energy in the final basis set =     -155.0331381556

                    Orbital Energies (a.u.)
 --------------------------------------------------------------

 Alpha MOs
 -- Occupied --
-19.1346 -10.2257 -10.1718  -1.0089  -0.7440  -0.6063  -0.5084  -0.4624
 -0.3972  -0.3806  -0.3610  -0.3237  -0.2592

          Ground-State Mulliken Net Atomic Charges

     Atom                 Charge (a.u.)
  ----------------------------------------
      1 C                    -0.444911
      2 C                    -0.021493
      3 H                     0.141871
      4 H                     0.118831
      5 H                     0.118823
      6 O                    -0.616325
      7 H                     0.387956
      8 H                     0.157619
      9 H                     0.157628
  ----------------------------------------
  Sum of atomic charges =     0.000000

                    Cartesian Multipole Moments
 -----------------------------------------------------------------
    Charge (ESU x 10^10)
                -0.0000
    Dipole Moment (Debye)
         X      -0.2193      Y       1.5623      Z      -0.0005
       Tot       1.5776
    Quadrupole Moments (Debye-Ang)
        XX     -16.6977     XY      -2.0537     YY     -20.4052
        XZ       0.0011     YZ      -0.0000     ZZ     -19.9037

 Frequency:       236.66                 362.67                 413.07
 Force Cnst:      0.0374                 0.0841                 0.2670
 Red. Mass:       1.1333                 1.0850                 2.6561
 IR Intens:        3.812                124.499                 11.238
 Frequency:       814.57                 914.48                1057.12
 Force Cnst:      0.4231                 1.0357                 1.3698
 Red. Mass:       1.0824                 2.1020                 2.0805
 IR Intens:        0.021                 10.091                 47.474
 Frequency:      1150.36                1194.93                1305.93
 Force Cnst:      2.0255                 1.2919                 1.2164
 Red. Mass:       2.5979                 1.5356                 1.2106
 IR Intens:       32.762                  5.490                 88.266
 Frequency:      1313.40                1429.67                1487.04
 Force Cnst:      1.1220                 1.4803                 1.8925
 Red. Mass:       1.1039                 1.2292                 1.4526
 IR Intens:        0.003                  1.156                 14.393
 Frequency:      1510.54                1530.45                1546.22
 Force Cnst:      1.3976                 1.4699                 1.5177
 Red. Mass:       1.0396                 1.0651                 1.0774
 IR Intens:        4.710                  3.663                  0.317
 Frequency:      3051.47                3065.15                3087.18
 Force Cnst:      5.7846                 5.7360                 6.2219
 Red. Mass:       1.0544                 1.0362                 1.1080
 IR Intens:       69.362                 14.203                 50.233
 Frequency:      3131.72                3145.49                3702.47
 Force Cnst:      6.3763                 6.4283                 8.6116
 Red. Mass:       1.1035                 1.1027                 1.0662
 IR Intens:       57.359                 31.945                  9.338

 STANDARD THERMODYNAMIC QUANTITIES AT   298.15 K  AND     1.00 ATM

   This Molecule has  0 Imaginary Frequencies
   Zero point vibrational energy:       50.679 kcal/mol

   Atom    1 Element C  Has Mass   12.00000
   Atom    2 Element C  Has Mass   12.00000
   Atom    3 Element H  Has Mass    1.00783
   Atom    4 Element H  Has Mass    1.00783
   Atom    5 Element H  Has Mass    1.00783
   Atom    6 Element O  Has Mass   15.99491
   Atom    7 Element H  Has Mass    1.00783
   Atom    8 Element H  Has Mass    1.00783
   Atom    9 Element H  Has Mass    1.00783
   Molecular Mass:    46.041890 amu
   Principal axes and moments of inertia in amu*Bohr^2:
                             1           2           3
    Eigenvalues --       50.31786   194.10544   221.84825
          X               0.99903    -0.04404     0.00001
          Y               0.04404     0.99903     0.00000
          Z              -0.00001     0.00000     1.00000
   Rotational Symmetry Number is   1
   The Molecule is an Asymmetric Top
   Translational Enthalpy:        0.889 kcal/mol
   Rotational Enthalpy:           0.889 kcal/mol
   Vibrational Enthalpy:         51.551 kcal/mol
   gas constant (RT):             0.592 kcal/mol
   Translational Entropy:        37.406  cal/mol.K
   Rotational Entropy:           22.298  cal/mol.K
   Vibrational Entropy:           4.461  cal/mol.K

   Total Enthalpy:               53.920 kcal/mol
   Total Entropy:                64.165  cal/mol.K

 Total job time:  11.97s(wall), 27.87s(cpu)
        *  Thank you very much for using Q-Chem.  Have a nice day.  *
