 Q-Chem 5.2 (devel), Q-Chem, Inc., Pleasanton, CA (2019)
 Q-Chem 5.2.1 for Intel X86 EM64T Linux

User input:
--------------------------------------------------------------
$rem
jobtype = freq
exchange = b3lyp
basis = 6-31g*
$end

$molecule
0 1
C     -6.77938004    0.58414918   -0.15984835
C     -4.93535520    1.95338967    0.33782163
H     -7.14798340    1.28874322   -0.91164808
H     -7.24278636    0.79074600    0.80973731
H     -7.05081003   -0.42911155   -0.46793350
O     -5.36362967    0.65814949   -0.06046882
H     -5.33926227    2.20418154    1.32346180
H     -5.24444575    2.70216199   -0.39792769
H     -3.84370026    1.95225458    0.39762306
$end
--------------------------------------------------------------

             Standard Nuclear Orientation (Angstroms)
    I     Atom           X                Y                Z
 ----------------------------------------------------------------
    1      C       1.1750449519     0.0000000150    -0.2008244996
    2      C      -1.1750449482    -0.0000000158    -0.2008245002
    3      H       1.2129597537     0.8972360595    -0.8261675899
    4      H       1.2129662187    -0.8972433896    -0.8261566240
    5      H       2.0436270399     0.0000071365     0.4631432425
    6      O      -0.0000000024    -0.0000000004     0.5985319931
    7      H      -1.2129597537    -0.8972360595    -0.8261675899
    8      H      -1.2129662187     0.8972433896    -0.8261566240
    9      H      -2.0436270399    -0.0000071365     0.4631432425
 ----------------------------------------------------------------

   11    -155.0243496963      1.33e-09  Convergence criterion met
 Total energy in the final basis set =     -155.0243496963

             Orbital Energies (a.u.) and Symmetries
 --------------------------------------------------------------

 Alpha MOs, Restricted
 -- Occupied --
-19.142 -10.223 -10.223  -1.020  -0.716  -0.637  -0.468  -0.467
  1 A     1 B     2 A     3 A     2 B     4 A     3 B     4 B
 -0.465  -0.398  -0.376  -0.312  -0.250
  5 A     6 A     5 B     7 A     6 B

 Beta MOs, Restricted
 -- Occupied --
-19.142 -10.223 -10.223  -1.020  -0.716  -0.637  -0.468  -0.467
  1 A     1 B     2 A     3 A     2 B     4 A     3 B     4 B
 -0.465  -0.398  -0.376  -0.312  -0.250
  5 A     6 A     5 B     7 A     6 B

          Ground-State Mulliken Net Atomic Charges

     Atom                 Charge (a.u.)
  ----------------------------------------
      1 C                    -0.192303
      2 C                    -0.192303
      3 H                     0.130536
      4 H                     0.130537
      5 H                     0.158279
      6 O                    -0.454099
      7 H                     0.130536
      8 H                     0.130537
      9 H                     0.158279
  ----------------------------------------
  Sum of atomic charges =     0.000000

                    Cartesian Multipole Moments
 -----------------------------------------------------------------
    Charge (ESU x 10^10)
                 0.0000
    Dipole Moment (Debye)
         X      -0.0000      Y       0.0000      Z      -1.3392
       Tot       1.3392
    Quadrupole Moments (Debye-Ang)
        XX     -16.8763     XY       0.0000     YY     -19.9440
        XZ       0.0000     YZ      -0.0000     ZZ     -21.0216

 Frequency:       111.59                 238.62                 412.84
 Force Cnst:      0.0076                 0.0432                 0.2238
 Red. Mass:       1.0315                 1.2888                 2.2287
 IR Intens:        0.000                  6.022                  2.657
 Frequency:       927.17                1117.04                1163.02
 Force Cnst:      2.0942                 1.4700                 0.9634
 Red. Mass:       4.1347                 1.9995                 1.2089
 IR Intens:       33.566                 53.144                  0.000
 Frequency:      1167.73                1200.66                1266.59
 Force Cnst:      1.9748                 1.1429                 1.5216
 Red. Mass:       2.4580                 1.3456                 1.6098
 IR Intens:       85.936                  5.685                  4.766
 Frequency:      1467.26                1506.51                1509.01
 Force Cnst:      1.4195                 1.5443                 1.4098
 Red. Mass:       1.1191                 1.1549                 1.0508
 IR Intens:       12.230                  0.000                  8.140
 Frequency:      1513.09                1524.66                1526.52
 Force Cnst:      1.4132                 1.4381                 1.4585
 Red. Mass:       1.0477                 1.0500                 1.0623
 IR Intens:        0.000                 10.336                  0.563
 Frequency:      3039.96                3052.88                3110.04
 Force Cnst:      5.6026                 5.6629                 6.2996
 Red. Mass:       1.0290                 1.0313                 1.1054
 IR Intens:       64.106                 43.591                143.989
 Frequency:      3113.89                3141.57                3143.20
 Force Cnst:      6.3299                 6.4133                 6.4235
 Red. Mass:       1.1080                 1.1029                 1.1035
 IR Intens:        0.000                 24.776                 43.621

 STANDARD THERMODYNAMIC QUANTITIES AT   298.15 K  AND     1.00 ATM

   This Molecule has  0 Imaginary Frequencies
   Zero point vibrational energy:       50.398 kcal/mol

   Atom    1 Element C  Has Mass   12.00000
   Atom    2 Element C  Has Mass   12.00000
   Atom    3 Element H  Has Mass    1.00783
   Atom    4 Element H  Has Mass    1.00783
   Atom    5 Element H  Has Mass    1.00783
   Atom    6 Element O  Has Mass   15.99491
   Atom    7 Element H  Has Mass    1.00783
   Atom    8 Element H  Has Mass    1.00783
   Atom    9 Element H  Has Mass    1.00783
   Molecular Mass:    46.041890 amu
   Principal axes and moments of inertia in amu*Bohr^2:
                             1           2           3
    Eigenvalues --       46.44746   181.16843   204.43704
          X               1.00000     0.00000    -0.00000
          Y               0.00000    -0.00000     1.00000
          Z              -0.00000     1.00000     0.00000
   Rotational Symmetry Number is   2
   The Molecule is an Asymmetric Top
   Translational Enthalpy:        0.889 kcal/mol
   Rotational Enthalpy:           0.889 kcal/mol
   Vibrational Enthalpy:         51.453 kcal/mol
   gas constant (RT):             0.592 kcal/mol
   Translational Entropy:        37.406  cal/mol.K
   Rotational Entropy:           20.691  cal/mol.K
   Vibrational Entropy:           6.391  cal/mol.K

   Total Enthalpy:               53.823 kcal/mol
   Total Entropy:                64.488  cal/mol.K

 Total job time:  14.70s(wall), 33.87s(cpu)
        *  Thank you very much for using Q-Chem.  Have a nice day.  *
