 Q-Chem 5.2 (devel), Q-Chem, Inc., Pleasanton, CA (2019)
 Q-Chem 5.2.1 for Intel X86 EM64T Linux

User input:
--------------------------------------------------------------
$rem
jobtype = freq
exchange = b3lyp
basis = 6-31g*
$end

$molecule
0 1
C      0.78001602   -0.36398086    0.58725328
C     -0.05783806    0.17704444   -0.29470200
H      1.85362982   -0.30129817    0.45199056
H      0.26253863    0.70323350   -1.18454706
H     -0.15801813    2.24945846    1.88325462
O     -1.41141836    0.10523759   -0.13626285
H     -1.83049772    0.56096628   -0.88740413
H     -0.88272159    2.16288696    2.00536228
H      0.40356967   -0.88120278    1.46367221
$end
--------------------------------------------------------------

             Standard Nuclear Orientation (Angstroms)
    I     Atom           X                Y                Z
 ----------------------------------------------------------------
    1      C      -1.2331054172     0.1364774197     0.1961134608
    2      C      -0.0483020272     0.3540868869    -0.3708433255
    3      H      -2.1544756611     0.2925462236    -0.3530596601
    4      H       0.0774102672     0.6926223837    -1.3911033500
    5      H      -0.1723984700    -2.6477108063    -0.5199796290
    6      O       1.1190381286     0.1614804242     0.3093467419
    7      H       1.8578491664     0.3769245075    -0.2866997905
    8      H       0.4287891534    -2.7464452957    -0.0999499250
    9      H      -1.3010348182    -0.2031662463     1.2243976075
 ----------------------------------------------------------------

   12    -154.9767820128      3.00e-09  Convergence criterion met
 Total energy in the final basis set =     -154.9767820128

                    Orbital Energies (a.u.)
 --------------------------------------------------------------

 Alpha MOs
 -- Occupied --
-19.1751 -10.2379 -10.1620  -1.0525  -0.7447  -0.5813  -0.5442  -0.4363
 -0.4220  -0.3983  -0.3775  -0.3505  -0.2222

          Ground-State Mulliken Net Atomic Charges

     Atom                 Charge (a.u.)
  ----------------------------------------
      1 C                    -0.375676
      2 C                     0.138015
      3 H                     0.139045
      4 H                     0.127703
      5 H                    -0.003139
      6 O                    -0.575568
      7 H                     0.407677
      8 H                    -0.004383
      9 H                     0.146326
  ----------------------------------------
  Sum of atomic charges =     0.000000

                    Cartesian Multipole Moments
 -----------------------------------------------------------------
    Charge (ESU x 10^10)
                -0.0000
    Dipole Moment (Debye)
         X       0.9418      Y       0.6452      Z      -1.6438
       Tot       2.0013
    Quadrupole Moments (Debye-Ang)
        XX     -16.2939     XY       1.1143     YY     -21.8185
        XZ      -2.1147     YZ      -1.3869     ZZ     -19.3349

 Frequency:      -309.52                -131.48                 -93.37
 Force Cnst:      0.0576                 0.0105                 0.0070
 Red. Mass:       1.0199                 1.0269                 1.3662
 IR Intens:        2.842                  0.871                  3.350
 Frequency:       111.93                 242.23                 390.63
 Force Cnst:      0.0091                 0.0365                 0.1017
 Red. Mass:       1.2370                 1.0556                 1.1310
 IR Intens:        0.005                  0.004                110.602
 Frequency:       483.82                 714.50                 832.57
 Force Cnst:      0.3051                 0.4490                 0.5770
 Red. Mass:       2.2122                 1.4926                 1.4129
 IR Intens:        2.734                 16.700                 59.807
 Frequency:       959.89                 965.62                1184.61
 Force Cnst:      0.5980                 1.0176                 1.7001
 Red. Mass:       1.1016                 1.8524                 2.0562
 IR Intens:       18.043                 37.679                 16.150
 Frequency:      1332.11                1366.56                1459.55
 Force Cnst:      1.5364                 1.3172                 1.4819
 Red. Mass:       1.4695                 1.1972                 1.1807
 IR Intens:      178.514                 44.959                  0.681
 Frequency:      1760.09                3189.77                3230.04
 Force Cnst:      7.4734                 6.3436                 6.7352
 Red. Mass:       4.0945                 1.0582                 1.0957
 IR Intens:       84.496                  1.963                 19.782
 Frequency:      3277.64                3703.24                4488.89
 Force Cnst:      7.0705                 8.6206                11.9651
 Red. Mass:       1.1171                 1.0669                 1.0078
 IR Intens:       11.265                 53.414                  0.969

 STANDARD THERMODYNAMIC QUANTITIES AT   298.15 K  AND     1.00 ATM

   This Molecule has  3 Imaginary Frequencies
   Zero point vibrational energy:       42.449 kcal/mol

   Atom    1 Element C  Has Mass   12.00000
   Atom    2 Element C  Has Mass   12.00000
   Atom    3 Element H  Has Mass    1.00783
   Atom    4 Element H  Has Mass    1.00783
   Atom    5 Element H  Has Mass    1.00783
   Atom    6 Element O  Has Mass   15.99491
   Atom    7 Element H  Has Mass    1.00783
   Atom    8 Element H  Has Mass    1.00783
   Atom    9 Element H  Has Mass    1.00783
   Molecular Mass:    46.041890 amu
   Principal axes and moments of inertia in amu*Bohr^2:
                             1           2           3
    Eigenvalues --       88.15990   199.59889   234.25348
          X               0.99941    -0.00527    -0.03379
          Y               0.00653     0.99928     0.03735
          Z               0.03357    -0.03754     0.99873
   Rotational Symmetry Number is   1
   The Molecule is an Asymmetric Top
   Translational Enthalpy:        0.889 kcal/mol
   Rotational Enthalpy:           0.889 kcal/mol
   Vibrational Enthalpy:         43.748 kcal/mol
   gas constant (RT):             0.592 kcal/mol
   Translational Entropy:        37.406  cal/mol.K
   Rotational Entropy:           22.937  cal/mol.K
   Vibrational Entropy:           7.515  cal/mol.K

   Total Enthalpy:               46.118 kcal/mol
   Total Entropy:                67.858  cal/mol.K

 Total job time:  11.91s(wall), 29.19s(cpu)
        *  Thank you very much for using Q-Chem.  Have a nice day.  *
